 argument  1 = h2.nw
  NWChem w/ OpenMP: maximum threads =    1



============================== echo of input deck ==============================
start h2

memory total 6 gb

echo

geometry units angstroms
symmetry c1
H    0.000  0.000  0.000
H    0.000  0.000  1.300
end

basis
 * library 6-31G
end

scf
thresh 1.0e-8
tol2e 1.0e-9
singlet
rhf
maxiter 200
end

tce
ccsd
2eorb
2emet 13
thresh 1.0d-8
end

set tce:print_integrals T
set tce:qorb  4
set tce:qela  1
set tce:qelb  1

task tce energy


================================================================================


                                         
                                         


              Northwest Computational Chemistry Package (NWChem) 6.8
              ------------------------------------------------------


                    Environmental Molecular Sciences Laboratory
                       Pacific Northwest National Laboratory
                                Richland, WA 99352

                              Copyright (c) 1994-2018
                       Pacific Northwest National Laboratory
                            Battelle Memorial Institute

             NWChem is an open-source computational chemistry package
                        distributed under the terms of the
                      Educational Community License (ECL) 2.0
             A copy of the license is included with this distribution
                              in the LICENSE.TXT file

                                  ACKNOWLEDGMENT
                                  --------------

            This software and its documentation were developed at the
            EMSL at Pacific Northwest National Laboratory, a multiprogram
            national laboratory, operated for the U.S. Department of Energy
            by Battelle under Contract Number DE-AC05-76RL01830. Support
            for this work was provided by the Department of Energy Office
            of Biological and Environmental Research, Office of Basic
            Energy Sciences, and the Office of Advanced Scientific Computing.


           Job information
           ---------------

    hostname        = WE35263ubuntu
    program         = /home/baum612/code/NWChem/nwchem/bin/LINUX64/nwchem
    date            = Tue Oct 13 16:35:12 2020

    compiled        = Thu_Sep_17_16:23:08_2020
    source          = /home/baum612/code/NWChem/nwchem
    nwchem branch   = Development
    nwchem revision = nwchem_on_git-913-g5c9e9b850
    ga revision     = 5.7.0
    use scalapack   = F
    input           = h2.nw
    prefix          = h2.
    data base       = ./h2.db
    status          = startup
    nproc           =        1
    time left       =     -1s



           Memory information
           ------------------

    heap     =  201326588 doubles =   1536.0 Mbytes
    stack    =  201326593 doubles =   1536.0 Mbytes
    global   =  402653184 doubles =   3072.0 Mbytes (distinct from heap & stack)
    total    =  805306365 doubles =   6144.0 Mbytes
    verify   = yes
    hardfail = no 


           Directory information
           ---------------------

  0 permanent = .
  0 scratch   = .




                                NWChem Input Module
                                -------------------



 Scaling coordinates for geometry "geometry" by  1.889725989
 (inverse scale =  0.529177249)

 Turning off AUTOSYM since
 SYMMETRY directive was detected!


          ------
          auto-z
          ------
     1 autoz failed with cvr_scaling = 1.2 changing to 1.3
     2 autoz failed with cvr_scaling = 1.3 changing to 1.4
     3 autoz failed with cvr_scaling = 1.4 changing to 1.5
     4 autoz failed with cvr_scaling = 1.5 changing to 1.6
     5 autoz failed with cvr_scaling = 1.6 changing to 1.7
  no constraints, skipping    0.0000000000000000     
  no constraints, skipping    0.0000000000000000     


                             Geometry "geometry" -> ""
                             -------------------------

 Output coordinates in angstroms (scale by  1.889725989 to convert to a.u.)

  No.       Tag          Charge          X              Y              Z
 ---- ---------------- ---------- -------------- -------------- --------------
    1 H                    1.0000     0.00000000     0.00000000    -0.65000000
    2 H                    1.0000     0.00000000     0.00000000     0.65000000

      Atomic Mass 
      ----------- 

      H                  1.007825


 Effective nuclear repulsion energy (a.u.)       0.4070594223

            Nuclear Dipole moment (a.u.) 
            ----------------------------
        X                 Y               Z
 ---------------- ---------------- ----------------
     0.0000000000     0.0000000000     0.0000000000



                                Z-matrix (autoz)
                                -------- 

 Units are Angstrom for bonds and degrees for angles

      Type          Name      I     J     K     L     M      Value
      ----------- --------  ----- ----- ----- ----- ----- ----------
    1 Stretch                  1     2                       1.30000


            XYZ format geometry
            -------------------
     2
 geometry
 H                     0.00000000     0.00000000    -0.65000000
 H                     0.00000000     0.00000000     0.65000000



 Summary of "ao basis" -> "" (cartesian)
 ------------------------------------------------------------------------------
       Tag                 Description            Shells   Functions and Types
 ---------------- ------------------------------  ------  ---------------------
 *                           6-31G                    on all atoms 


                      Basis "ao basis" -> "ao basis" (cartesian)
                      -----
  H (Hydrogen)
  ------------
            Exponent  Coefficients 
       -------------- ---------------------------------------------------------
  1 S  1.87311370E+01  0.033495
  1 S  2.82539370E+00  0.234727
  1 S  6.40121700E-01  0.813757

  2 S  1.61277800E-01  1.000000



 Summary of "ao basis" -> "ao basis" (cartesian)
 ------------------------------------------------------------------------------
       Tag                 Description            Shells   Functions and Types
 ---------------- ------------------------------  ------  ---------------------
 H                           6-31G                   2        2   2s


                                 NWChem SCF Module
                                 -----------------



  ao basis        = "ao basis"
  functions       =     4
  atoms           =     2
  closed shells   =     1
  open shells     =     0
  charge          =   0.00
  wavefunction    = RHF 
  input vectors   = atomic
  output vectors  = ./h2.movecs
  use symmetry    = F
  symmetry adapt  = F


 Summary of "ao basis" -> "ao basis" (cartesian)
 ------------------------------------------------------------------------------
       Tag                 Description            Shells   Functions and Types
 ---------------- ------------------------------  ------  ---------------------
 H                           6-31G                   2        2   2s



 Forming initial guess at       0.0s


      Superposition of Atomic Density Guess
      -------------------------------------

 Sum of atomic energies:          -0.99646508

      Non-variational initial energy
      ------------------------------

 Total energy =      -0.751984
 1-e energy   =      -1.792593
 2-e energy   =       0.633550
 HOMO         =      -0.381426
 LUMO         =       0.018626


 Starting SCF solution at       0.0s



 ----------------------------------------------
         Quadratically convergent ROHF

 Convergence threshold     :          1.000E-08
 Maximum no. of iterations :          200
 Final Fock-matrix accuracy:          1.000E-09
 ----------------------------------------------


 #quartets = 5.500D+01 #integrals = 5.500D+01 #direct =  0.0% #cached =100.0%


 Integral file          = ./h2.aoints.0
 Record size in doubles =    65536    No. of integs per rec  =    43688
 Max. records in memory =        2    Max. records in file   =  1188373
 No. of bits per label  =        8    No. of bits per value  =       64


              iter       energy          gnorm     gmax       time
             ----- ------------------- --------- --------- --------
                 1       -1.0356925045  3.66D-02  3.66D-02      0.0
                 2       -1.0358261246  1.14D-05  1.14D-05      0.0
                 3       -1.0358261246  7.62D-13  7.62D-13      0.0


       Final RHF  results 
       ------------------ 

         Total SCF energy =     -1.035826124575
      One-electron energy =     -1.948943397299
      Two-electron energy =      0.506057850416
 Nuclear repulsion energy =      0.407059422307

        Time for solution =      0.0s


             Final eigenvalues
             -----------------

              1      
    1   -0.4684
    2    0.0937
    3    1.0198
    4    1.0425

                       ROHF Final Molecular Orbital Analysis
                       -------------------------------------

 Vector    1  Occ=2.000000D+00  E=-4.684138D-01
              MO Center=  0.0D+00,  0.0D+00, -3.6D-16, r^2= 1.2D+00
   Bfn.  Coefficient  Atom+Function         Bfn.  Coefficient  Atom+Function  
  ----- ------------  ---------------      ----- ------------  ---------------
     2      0.387263  1 H  s                  4      0.387263  2 H  s          
     1      0.252674  1 H  s                  3      0.252674  2 H  s          

 Vector    2  Occ=0.000000D+00  E= 9.367050D-02
              MO Center=  0.0D+00,  0.0D+00,  3.3D-16, r^2= 1.9D+00
   Bfn.  Coefficient  Atom+Function         Bfn.  Coefficient  Atom+Function  
  ----- ------------  ---------------      ----- ------------  ---------------
     2      0.924536  1 H  s                  4     -0.924536  2 H  s          
     1      0.201634  1 H  s                  3     -0.201634  2 H  s          

 Vector    3  Occ=0.000000D+00  E= 1.019762D+00
              MO Center=  0.0D+00,  0.0D+00,  1.9D-14, r^2= 1.6D+00
   Bfn.  Coefficient  Atom+Function         Bfn.  Coefficient  Atom+Function  
  ----- ------------  ---------------      ----- ------------  ---------------
     1      0.927429  1 H  s                  3      0.927429  2 H  s          
     2     -0.695518  1 H  s                  4     -0.695518  2 H  s          

 Vector    4  Occ=0.000000D+00  E= 1.042455D+00
              MO Center=  0.0D+00,  0.0D+00, -1.9D-14, r^2= 1.7D+00
   Bfn.  Coefficient  Atom+Function         Bfn.  Coefficient  Atom+Function  
  ----- ------------  ---------------      ----- ------------  ---------------
     2      1.109001  1 H  s                  4     -1.109001  2 H  s          
     1     -0.926993  1 H  s                  3      0.926993  2 H  s          


 center of mass
 --------------
 x =   0.00000000 y =   0.00000000 z =   0.00000000

 moments of inertia (a.u.)
 ------------------
           3.041161667181           0.000000000000           0.000000000000
           0.000000000000           3.041161667181           0.000000000000
           0.000000000000           0.000000000000           0.000000000000

  Mulliken analysis of the total density
  --------------------------------------

    Atom       Charge   Shell Charges
 -----------   ------   -------------------------------------------------------
    1 H    1     1.00   0.33  0.67
    2 H    1     1.00   0.33  0.67

       Multipole analysis of the density wrt the origin
       ------------------------------------------------

     L   x y z        total         open         nuclear
     -   - - -        -----         ----         -------
     0   0 0 0     -0.000000      0.000000      2.000000

     1   1 0 0      0.000000      0.000000      0.000000
     1   0 1 0      0.000000      0.000000      0.000000
     1   0 0 1      0.000000      0.000000      0.000000

     2   2 0 0     -2.018202      0.000000      0.000000
     2   1 1 0      0.000000      0.000000      0.000000
     2   1 0 1      0.000000      0.000000      0.000000
     2   0 2 0     -2.018202      0.000000      0.000000
     2   0 1 1      0.000000      0.000000      0.000000
     2   0 0 2     -1.211443      0.000000      3.017549


 Parallel integral file used       1 records with       0 large values

 ------------------------------------
     Number of active orbitals      4
     Number of active alpha electrons      1
     Number of active beta electrons       1
 ------------------------------------
                   NWChem Extensible Many-Electron Theory Module
                   ---------------------------------------------

              ======================================================
                   This portion of the program was automatically
                  generated by a Tensor Contraction Engine (TCE).
                  The development of this portion of the program
                 and TCE was supported by US Department of Energy,
                Office of Science, Office of Basic Energy Science.
                      TCE is a product of Battelle and PNNL.
              Please cite: S.Hirata, J.Phys.Chem.A 107, 9887 (2003).
              ======================================================

            General Information
            -------------------
      Number of processors :     1
         Wavefunction type : Restricted Hartree-Fock
          No. of electrons :     2
           Alpha electrons :     1
            Beta electrons :     1
           No. of orbitals :     8
            Alpha orbitals :     4
             Beta orbitals :     4
        Alpha frozen cores :     0
         Beta frozen cores :     0
     Alpha frozen virtuals :     0
      Beta frozen virtuals :     0
         Spin multiplicity : singlet 
    Number of AO functions :     4
       Number of AO shells :     4
        Use of symmetry is : off
      Symmetry adaption is : off
         Schwarz screening : 0.10D-08

          Correlation Information
          -----------------------
          Calculation type : Coupled-cluster singles & doubles                           
   Perturbative correction : none                                                        
            Max iterations :      100
        Residual threshold : 0.10D-07
     T(0) DIIS level shift : 0.00D+00
     L(0) DIIS level shift : 0.00D+00
     T(1) DIIS level shift : 0.00D+00
     L(1) DIIS level shift : 0.00D+00
     T(R) DIIS level shift : 0.00D+00
     T(I) DIIS level shift : 0.00D+00
   CC-T/L Amplitude update :  5-th order DIIS
                I/O scheme : Global Array Library
        L-threshold :  0.10D-07
        EOM-threshold :  0.10D-07
 no EOMCCSD initial starts read in
 TCE RESTART OPTIONS
 READ_INT:   F
 WRITE_INT:  F
 READ_TA:    F
 WRITE_TA:   F
 READ_XA:    F
 WRITE_XA:   F
 READ_IN3:   F
 WRITE_IN3:  F
 SLICE:      F
 D4D5:       F
 quantumc:   T
 qrotation:  F
 pwtce:      F
 qducc:      F
 nacto:                         0
 nrotv:                         0
 nrot:                          0

            Memory Information
            ------------------
          Available GA space size is     402653168 doubles
          Available MA space size is     402652644 doubles

 Maximum block size supplied by input
 Maximum block size         1 doubles

 tile_dim =      1

 Block   Spin    Irrep     Size     Offset   Alpha
 -------------------------------------------------
   1    alpha     a      1 doubles       0       1
   2    beta      a      1 doubles       1       1
   3    alpha     a      1 doubles       2       3
   4    alpha     a      1 doubles       3       4
   5    alpha     a      1 doubles       4       5
   6    beta      a      1 doubles       5       3
   7    beta      a      1 doubles       6       4
   8    beta      a      1 doubles       7       5

 Global array virtual files algorithm will be used

 Parallel file system coherency ......... OK

 #quartets = 5.500D+01 #integrals = 5.500D+01 #direct =  0.0% #cached =100.0%


 Integral file          = ./h2.aoints.0
 Record size in doubles =    65536    No. of integs per rec  =    43688
 Max. records in memory =        2    Max. records in file   =  1188373
 No. of bits per label  =        8    No. of bits per value  =       64


 Fock matrix recomputed
 1-e file size   =               16
 1-e file name   = ./h2.f1
 Cpu & wall time / sec            0.0            0.0
 4-electron integrals stored in orbital form

 v2    file size   =               55
 4-index algorithm nr.  13 is used
 imaxsize =       30
 imaxsize ichop =        0
 begin_one_electron_integrals
    1    1        -0.9744716986
    3    1        -0.1054759725
    2    2        -0.6513088690
    4    2         0.1704389362
    1    3        -0.1054759725
    3    3         0.1418494325
    2    4         0.1704389362
    4    4         0.1348011047
 end_one_electron_integrals
 begin_two_electron_integrals
    1    1    1    1        0.5060578504
    2    1    2    1        0.1297421496
    3    1    1    1        0.1054759725
    3    1    3    1        0.0807674137
    3    1    2    2        0.0794959311
    4    1    2    1       -0.0754707914
    4    1    4    1        0.0882547440
    4    1    3    2       -0.0654774158
    2    2    1    1        0.4373607589
    2    2    2    2        0.4129307660
    3    2    2    1        0.0436190496
    3    2    3    2        0.0534217660
    4    2    1    1       -0.1229548638
    4    2    3    1       -0.0790980455
    4    2    2    2       -0.0849426077
    4    2    4    2        0.0870520055
    4    2    3    3       -0.1312375842
    3    3    1    1        0.4793401435
    3    3    3    1        0.1177615748
    3    3    2    2        0.4228111255
    3    3    3    3        0.4888068788
    4    3    2    1       -0.1466348075
    4    3    4    1        0.1167966084
    4    3    3    2       -0.0770478402
    4    3    4    3        0.2043875608
    4    4    1    1        0.4979541475
    4    4    3    1        0.1407359336
    4    4    2    2        0.4428363897
    4    4    4    2       -0.1469262938
    4    4    3    3        0.5105076974
    4    4    4    4        0.5452698297
 end_two_electron_integrals
 enrep_tce =   0.40705942230746028     
  EHF(A)             =        -1.03582612
  EHF(total)         =        -1.03582612
  Shift (HFtot-HFA)  =         0.00000000
 Cpu & wall time / sec            0.0            0.0
 T1-number-of-tasks                    3

 t1 file size   =                3
 t1 file name   = ./h2.t1
 t1 file handle =       -998
 T2-number-of-boxes                   15

 t2 file size   =               15
 t2 file name   = ./h2.t2
 t2 file handle =       -996

 CCSD iterations
 -----------------------------------------------------------------
 Iter          Residuum       Correlation     Cpu    Wall    V2*C2
 -----------------------------------------------------------------
    1   0.0811778677755  -0.0252285700994     0.0     0.0     0.0
    2   0.0389383608800  -0.0355979584276     0.0     0.0     0.0
    3   0.0197900592868  -0.0402048749932     0.0     0.0     0.0
    4   0.0099918553506  -0.0424898128669     0.0     0.0     0.0
    5   0.0050149531278  -0.0436355854206     0.0     0.0     0.0
 MICROCYCLE DIIS UPDATE:                    5                    5
    6   0.0000062930049  -0.0447798954675     0.0     0.0     0.0
    7   0.0000021916635  -0.0447804242057     0.0     0.0     0.0
    8   0.0000009252744  -0.0447806066175     0.0     0.0     0.0
    9   0.0000004347139  -0.0447806976713     0.0     0.0     0.0
   10   0.0000002129223  -0.0447807443153     0.0     0.0     0.0
 MICROCYCLE DIIS UPDATE:                   10                    5
   11   0.0000000018548  -0.0447807919577     0.0     0.0     0.0
 -----------------------------------------------------------------
 Iterations converged
 CCSD correlation energy / hartree =        -0.044780791957695
 CCSD total energy / hartree       =        -1.080606916533023

 Singles contributions

 Doubles contributions
     2a   (alpha)     2a   (beta ) ---     1a   (alpha)     1a   (beta )       -0.2326328912
 Ground state specification:
 exp(T)|Ref>~(1+T)|Ref>
 ------- a(p)+/a(q) strings ----------

 singles norm

 doubles norm

 Reference string
  0.97399196135531385      :(1a)+ (1b)+ |0>

 Singles strings

 Doubles strings
 -0.22658256600018661      :(2a)+ (2b)+ (1b)  (1a)  (1a)+ (1b)+ |0>
 -------------------------------------

 Parallel integral file used       1 records with       0 large values


 Task  times  cpu:        0.3s     wall:        0.3s


                                NWChem Input Module
                                -------------------


 Summary of allocated global arrays
-----------------------------------
  No active global arrays



                         GA Statistics for process    0
                         ------------------------------

       create   destroy   get      put      acc     scatter   gather  read&inc
calls: 1308     1308     3.92e+04 1877     7678        0        0     1.07e+04 
number of processes/call -1.69e+14 9.59e+12 1.46e+09 0.00e+00 0.00e+00
bytes total:             3.59e+05 3.19e+04 6.41e+04 0.00e+00 0.00e+00 8.57e+04
bytes remote:            0.00e+00 0.00e+00 0.00e+00 0.00e+00 0.00e+00 0.00e+00
Max memory consumed for GA by this process: 2800 bytes

MA_summarize_allocated_blocks: starting scan ...
MA_summarize_allocated_blocks: scan completed: 0 heap blocks, 0 stack blocks
MA usage statistics:

	allocation statistics:
					      heap	     stack
					      ----	     -----
	current number of blocks	         0	         0
	maximum number of blocks	        17	        33
	current total bytes		         0	         0
	maximum total bytes		   1052680	  22509032
	maximum total K-bytes		      1053	     22510
	maximum total M-bytes		         2	        23


                                     CITATION
                                     --------
                Please cite the following reference when publishing
                           results obtained with NWChem:

                 M. Valiev, E.J. Bylaska, N. Govind, K. Kowalski,
              T.P. Straatsma, H.J.J. van Dam, D. Wang, J. Nieplocha,
                        E. Apra, T.L. Windus, W.A. de Jong
                 "NWChem: a comprehensive and scalable open-source
                  solution for large scale molecular simulations"
                      Comput. Phys. Commun. 181, 1477 (2010)
                           doi:10.1016/j.cpc.2010.04.018

                                      AUTHORS
                                      -------
          E. Apra, E. J. Bylaska, W. A. de Jong, N. Govind, K. Kowalski,
       T. P. Straatsma, M. Valiev, H. J. J. van Dam, D. Wang, T. L. Windus,
        J. Hammond, J. Autschbach, K. Bhaskaran-Nair, J. Brabec, K. Lopata,
    S. A. Fischer, S. Krishnamoorthy, M. Jacquelin, W. Ma, M. Klemm, O. Villa,
      Y. Chen, V. Anisimov, F. Aquino, S. Hirata, M. T. Hackler, V. Konjkov,
            D. Mejia-Rodriguez, T. Risthaus, M. Malagoli, A. Marenich,
   A. Otero-de-la-Roza, J. Mullin, P. Nichols, R. Peverati, J. Pittner, Y. Zhao,
        P.-D. Fan, A. Fonari, M. J. Williamson, R. J. Harrison, J. R. Rehr,
      M. Dupuis, D. Silverstein, D. M. A. Smith, J. Nieplocha, V. Tipparaju,
    M. Krishnan, B. E. Van Kuiken, A. Vazquez-Mayagoitia, L. Jensen, M. Swart,
      Q. Wu, T. Van Voorhis, A. A. Auer, M. Nooijen, L. D. Crosby, E. Brown,
      G. Cisneros, G. I. Fann, H. Fruchtl, J. Garza, K. Hirao, R. A. Kendall,
      J. A. Nichols, K. Tsemekhman, K. Wolinski, J. Anchell, D. E. Bernholdt,
      P. Borowski, T. Clark, D. Clerc, H. Dachsel, M. J. O. Deegan, K. Dyall,
    D. Elwood, E. Glendening, M. Gutowski, A. C. Hess, J. Jaffe, B. G. Johnson,
     J. Ju, R. Kobayashi, R. Kutteh, Z. Lin, R. Littlefield, X. Long, B. Meng,
      T. Nakajima, S. Niu, L. Pollack, M. Rosing, K. Glaesemann, G. Sandrone,
      M. Stave, H. Taylor, G. Thomas, J. H. van Lenthe, A. T. Wong, Z. Zhang.

 Total times  cpu:        0.3s     wall:        0.4s
